[
  {
    "id": "fact_007",
    "question": "What is the boiling point of water in Celsius?",
    "ground_truth": "100 degrees Celsius",
    "tool_use_rate": 0.0,
    "n_tool_use": 0,
    "n_no_tool": 16,
    "n_parse_error": 0,
    "n_total": 16,
    "metadata": {
      "difficulty": "easy",
      "expected_tool_use": false,
      "category": "easy"
    }
  },
  {
    "id": "fact_016",
    "question": "What is the square root of 144?",
    "ground_truth": "12",
    "tool_use_rate": 0.0,
    "n_tool_use": 0,
    "n_no_tool": 16,
    "n_parse_error": 0,
    "n_total": 16,
    "metadata": {
      "difficulty": "easy",
      "expected_tool_use": false,
      "category": "easy"
    }
  },
  {
    "id": "fact_025",
    "question": "What is the formula for water?",
    "ground_truth": "H2O",
    "tool_use_rate": 0.0625,
    "n_tool_use": 1,
    "n_no_tool": 15,
    "n_parse_error": 0,
    "n_total": 16,
    "metadata": {
      "difficulty": "easy",
      "expected_tool_use": false,
      "category": "easy"
    }
  },
  {
    "id": "fact_004",
    "question": "What year did World War II end?",
    "ground_truth": "1945",
    "tool_use_rate": 0.125,
    "n_tool_use": 2,
    "n_no_tool": 14,
    "n_parse_error": 0,
    "n_total": 16,
    "metadata": {
      "difficulty": "easy",
      "expected_tool_use": false,
      "category": "easy"
    }
  },
  {
    "id": "fact_019",
    "question": "What is the atomic number of carbon?",
    "ground_truth": "6",
    "tool_use_rate": 0.125,
    "n_tool_use": 2,
    "n_no_tool": 14,
    "n_parse_error": 0,
    "n_total": 16,
    "metadata": {
      "difficulty": "easy",
      "expected_tool_use": false,
      "category": "easy"
    }
  },
  {
    "id": "fact_003",
    "question": "What is the chemical symbol for gold?",
    "ground_truth": "Au",
    "tool_use_rate": 0.1875,
    "n_tool_use": 3,
    "n_no_tool": 13,
    "n_parse_error": 0,
    "n_total": 16,
    "metadata": {
      "difficulty": "easy",
      "expected_tool_use": false,
      "category": "easy"
    }
  },
  {
    "id": "fact_008",
    "question": "What is the speed of light in a vacuum?",
    "ground_truth": "approximately 299,792 kilometers per second",
    "tool_use_rate": 0.25,
    "n_tool_use": 4,
    "n_no_tool": 12,
    "n_parse_error": 0,
    "n_total": 16,
    "metadata": {
      "difficulty": "easy",
      "expected_tool_use": false,
      "category": "easy"
    }
  },
  {
    "id": "fact_076",
    "question": "Who won the 2025 Super Bowl?",
    "ground_truth": "Philadelphia Eagles (Super Bowl LIX, February 2025)",
    "tool_use_rate": 0.25,
    "n_tool_use": 4,
    "n_no_tool": 12,
    "n_parse_error": 0,
    "n_total": 16,
    "metadata": {
      "difficulty": "hard",
      "expected_tool_use": true,
      "category": "temporal"
    }
  },
  {
    "id": "fact_023",
    "question": "What does DNA stand for?",
    "ground_truth": "Deoxyribonucleic acid",
    "tool_use_rate": 0.3125,
    "n_tool_use": 5,
    "n_no_tool": 11,
    "n_parse_error": 0,
    "n_total": 16,
    "metadata": {
      "difficulty": "easy",
      "expected_tool_use": false,
      "category": "easy"
    }
  },
  {
    "id": "fact_014",
    "question": "What element does 'O' represent on the periodic table?",
    "ground_truth": "Oxygen",
    "tool_use_rate": 0.4375,
    "n_tool_use": 7,
    "n_no_tool": 9,
    "n_parse_error": 0,
    "n_total": 16,
    "metadata": {
      "difficulty": "easy",
      "expected_tool_use": false,
      "category": "easy"
    }
  },
  {
    "id": "fact_024",
    "question": "What year was the Declaration of Independence signed?",
    "ground_truth": "1776",
    "tool_use_rate": 0.5,
    "n_tool_use": 8,
    "n_no_tool": 8,
    "n_parse_error": 0,
    "n_total": 16,
    "metadata": {
      "difficulty": "easy",
      "expected_tool_use": false,
      "category": "easy"
    }
  },
  {
    "id": "fact_001",
    "question": "What is the capital of France?",
    "ground_truth": "Paris",
    "tool_use_rate": 0.5625,
    "n_tool_use": 9,
    "n_no_tool": 7,
    "n_parse_error": 0,
    "n_total": 16,
    "metadata": {
      "difficulty": "easy",
      "expected_tool_use": false,
      "category": "easy"
    }
  },
  {
    "id": "fact_010",
    "question": "What is the capital of Japan?",
    "ground_truth": "Tokyo",
    "tool_use_rate": 0.5625,
    "n_tool_use": 9,
    "n_no_tool": 7,
    "n_parse_error": 0,
    "n_total": 16,
    "metadata": {
      "difficulty": "easy",
      "expected_tool_use": false,
      "category": "easy"
    }
  },
  {
    "id": "fact_021",
    "question": "Who wrote 'A Brief History of Time'?",
    "ground_truth": "Stephen Hawking",
    "tool_use_rate": 0.5625,
    "n_tool_use": 9,
    "n_no_tool": 7,
    "n_parse_error": 0,
    "n_total": 16,
    "metadata": {
      "difficulty": "easy",
      "expected_tool_use": false,
      "category": "easy"
    }
  },
  {
    "id": "fact_012",
    "question": "Who developed the theory of general relativity?",
    "ground_truth": "Albert Einstein",
    "tool_use_rate": 0.625,
    "n_tool_use": 10,
    "n_no_tool": 6,
    "n_parse_error": 0,
    "n_total": 16,
    "metadata": {
      "difficulty": "easy",
      "expected_tool_use": false,
      "category": "easy"
    }
  },
  {
    "id": "fact_015",
    "question": "In what year did the Titanic sink?",
    "ground_truth": "1912",
    "tool_use_rate": 0.625,
    "n_tool_use": 10,
    "n_no_tool": 6,
    "n_parse_error": 0,
    "n_total": 16,
    "metadata": {
      "difficulty": "easy",
      "expected_tool_use": false,
      "category": "easy"
    }
  },
  {
    "id": "fact_006",
    "question": "Who painted the Mona Lisa?",
    "ground_truth": "Leonardo da Vinci",
    "tool_use_rate": 0.6875,
    "n_tool_use": 11,
    "n_no_tool": 5,
    "n_parse_error": 0,
    "n_total": 16,
    "metadata": {
      "difficulty": "easy",
      "expected_tool_use": false,
      "category": "easy"
    }
  },
  {
    "id": "fact_009",
    "question": "Who was the first person to walk on the Moon?",
    "ground_truth": "Neil Armstrong",
    "tool_use_rate": 0.6875,
    "n_tool_use": 11,
    "n_no_tool": 5,
    "n_parse_error": 0,
    "n_total": 16,
    "metadata": {
      "difficulty": "easy",
      "expected_tool_use": false,
      "category": "easy"
    }
  },
  {
    "id": "fact_077",
    "question": "What was the global box office gross for the highest-grossing film of 2025?",
    "ground_truth": "varies depending on time of query; check current box office data",
    "tool_use_rate": 0.6875,
    "n_tool_use": 11,
    "n_no_tool": 5,
    "n_parse_error": 0,
    "n_total": 16,
    "metadata": {
      "difficulty": "hard",
      "expected_tool_use": true,
      "category": "temporal"
    }
  },
  {
    "id": "fact_017",
    "question": "What language is primarily spoken in Brazil?",
    "ground_truth": "Portuguese",
    "tool_use_rate": 0.75,
    "n_tool_use": 12,
    "n_no_tool": 4,
    "n_parse_error": 0,
    "n_total": 16,
    "metadata": {
      "difficulty": "easy",
      "expected_tool_use": false,
      "category": "easy"
    }
  },
  {
    "id": "fact_018",
    "question": "Who is known as the father of computer science?",
    "ground_truth": "Alan Turing",
    "tool_use_rate": 0.75,
    "n_tool_use": 12,
    "n_no_tool": 4,
    "n_parse_error": 0,
    "n_total": 16,
    "metadata": {
      "difficulty": "easy",
      "expected_tool_use": false,
      "category": "easy"
    }
  },
  {
    "id": "fact_087",
    "question": "What was the outcome of the 2024 UK general election?",
    "ground_truth": "Labour Party won a landslide victory; Keir Starmer became Prime Minister",
    "tool_use_rate": 0.75,
    "n_tool_use": 12,
    "n_no_tool": 4,
    "n_parse_error": 0,
    "n_total": 16,
    "metadata": {
      "difficulty": "hard",
      "expected_tool_use": true,
      "category": "temporal"
    }
  },
  {
    "id": "fact_090",
    "question": "What was the closing value of the S&P 500 at the end of 2024?",
    "ground_truth": "approximately 5,881 (December 31, 2024)",
    "tool_use_rate": 0.75,
    "n_tool_use": 12,
    "n_no_tool": 4,
    "n_parse_error": 0,
    "n_total": 16,
    "metadata": {
      "difficulty": "hard",
      "expected_tool_use": true,
      "category": "temporal"
    }
  },
  {
    "id": "fact_002",
    "question": "Who wrote the play Romeo and Juliet?",
    "ground_truth": "William Shakespeare",
    "tool_use_rate": 0.8125,
    "n_tool_use": 13,
    "n_no_tool": 3,
    "n_parse_error": 0,
    "n_total": 16,
    "metadata": {
      "difficulty": "easy",
      "expected_tool_use": false,
      "category": "easy"
    }
  },
  {
    "id": "fact_005",
    "question": "What is the largest planet in our solar system?",
    "ground_truth": "Jupiter",
    "tool_use_rate": 0.8125,
    "n_tool_use": 13,
    "n_no_tool": 3,
    "n_parse_error": 0,
    "n_total": 16,
    "metadata": {
      "difficulty": "easy",
      "expected_tool_use": false,
      "category": "easy"
    }
  },
  {
    "id": "fact_020",
    "question": "What is the currency of the United Kingdom?",
    "ground_truth": "Pound sterling (GBP)",
    "tool_use_rate": 0.8125,
    "n_tool_use": 13,
    "n_no_tool": 3,
    "n_parse_error": 0,
    "n_total": 16,
    "metadata": {
      "difficulty": "easy",
      "expected_tool_use": false,
      "category": "easy"
    }
  },
  {
    "id": "fact_084",
    "question": "Who won the 2024 Nobel Prize in Physics?",
    "ground_truth": "John Hopfield and Geoffrey Hinton for foundational discoveries in machine learning",
    "tool_use_rate": 0.8125,
    "n_tool_use": 13,
    "n_no_tool": 3,
    "n_parse_error": 0,
    "n_total": 16,
    "metadata": {
      "difficulty": "hard",
      "expected_tool_use": true,
      "category": "temporal"
    }
  },
  {
    "id": "fact_088",
    "question": "Who won the 2025 Australian Open women's singles title?",
    "ground_truth": "Madison Keys",
    "tool_use_rate": 0.8125,
    "n_tool_use": 13,
    "n_no_tool": 3,
    "n_parse_error": 0,
    "n_total": 16,
    "metadata": {
      "difficulty": "hard",
      "expected_tool_use": true,
      "category": "temporal"
    }
  },
  {
    "id": "fact_043",
    "question": "How many verses are in the Quran?",
    "ground_truth": "6,236 verses (ayahs)",
    "tool_use_rate": 0.875,
    "n_tool_use": 14,
    "n_no_tool": 2,
    "n_parse_error": 0,
    "n_total": 16,
    "metadata": {
      "difficulty": "hard",
      "expected_tool_use": true,
      "category": "hard"
    }
  },
  {
    "id": "fact_048",
    "question": "What is the average depth of the Mediterranean Sea in meters?",
    "ground_truth": "approximately 1,500 meters",
    "tool_use_rate": 0.875,
    "n_tool_use": 14,
    "n_no_tool": 2,
    "n_parse_error": 0,
    "n_total": 16,
    "metadata": {
      "difficulty": "hard",
      "expected_tool_use": true,
      "category": "hard"
    }
  },
  {
    "id": "fact_049",
    "question": "How many symphonies did Gustav Mahler compose?",
    "ground_truth": "9 completed symphonies (10th left unfinished)",
    "tool_use_rate": 0.875,
    "n_tool_use": 14,
    "n_no_tool": 2,
    "n_parse_error": 0,
    "n_total": 16,
    "metadata": {
      "difficulty": "hard",
      "expected_tool_use": true,
      "category": "hard"
    }
  },
  {
    "id": "fact_080",
    "question": "Who won the 2024 US Presidential Election?",
    "ground_truth": "Donald Trump",
    "tool_use_rate": 0.875,
    "n_tool_use": 14,
    "n_no_tool": 2,
    "n_parse_error": 0,
    "n_total": 16,
    "metadata": {
      "difficulty": "hard",
      "expected_tool_use": true,
      "category": "temporal"
    }
  },
  {
    "id": "fact_083",
    "question": "What were the results of the 2024 European Parliament elections?",
    "ground_truth": "EPP remained the largest group; shift toward right-wing parties",
    "tool_use_rate": 0.875,
    "n_tool_use": 14,
    "n_no_tool": 2,
    "n_parse_error": 0,
    "n_total": 16,
    "metadata": {
      "difficulty": "hard",
      "expected_tool_use": true,
      "category": "temporal"
    }
  },
  {
    "id": "fact_092",
    "question": "Which spacecraft successfully landed on the Moon's south pole region in 2023?",
    "ground_truth": "India's Chandrayaan-3 (Vikram lander)",
    "tool_use_rate": 0.875,
    "n_tool_use": 14,
    "n_no_tool": 2,
    "n_parse_error": 0,
    "n_total": 16,
    "metadata": {
      "difficulty": "hard",
      "expected_tool_use": true,
      "category": "temporal"
    }
  },
  {
    "id": "fact_093",
    "question": "What major social media platform rebranded to 'X' in 2023?",
    "ground_truth": "Twitter rebranded to X",
    "tool_use_rate": 0.875,
    "n_tool_use": 14,
    "n_no_tool": 2,
    "n_parse_error": 0,
    "n_total": 16,
    "metadata": {
      "difficulty": "hard",
      "expected_tool_use": true,
      "category": "temporal"
    }
  },
  {
    "id": "fact_011",
    "question": "How many continents are there on Earth?",
    "ground_truth": "7",
    "tool_use_rate": 0.9375,
    "n_tool_use": 15,
    "n_no_tool": 1,
    "n_parse_error": 0,
    "n_total": 16,
    "metadata": {
      "difficulty": "easy",
      "expected_tool_use": false,
      "category": "easy"
    }
  },
  {
    "id": "fact_022",
    "question": "What is the tallest mountain in the world?",
    "ground_truth": "Mount Everest (8,849 meters)",
    "tool_use_rate": 0.9375,
    "n_tool_use": 15,
    "n_no_tool": 1,
    "n_parse_error": 0,
    "n_total": 16,
    "metadata": {
      "difficulty": "easy",
      "expected_tool_use": false,
      "category": "easy"
    }
  },
  {
    "id": "fact_034",
    "question": "How many UNESCO World Heritage Sites does Italy have?",
    "ground_truth": "59 as of 2024",
    "tool_use_rate": 0.9375,
    "n_tool_use": 15,
    "n_no_tool": 1,
    "n_parse_error": 0,
    "n_total": 16,
    "metadata": {
      "difficulty": "hard",
      "expected_tool_use": true,
      "category": "hard"
    }
  },
  {
    "id": "fact_046",
    "question": "What is the total number of kanji characters in the Joyo Kanji list in Japan?",
    "ground_truth": "2,136 characters",
    "tool_use_rate": 0.9375,
    "n_tool_use": 15,
    "n_no_tool": 1,
    "n_parse_error": 0,
    "n_total": 16,
    "metadata": {
      "difficulty": "hard",
      "expected_tool_use": true,
      "category": "hard"
    }
  },
  {
    "id": "fact_047",
    "question": "How many official languages does South Africa have?",
    "ground_truth": "11 official languages",
    "tool_use_rate": 0.9375,
    "n_tool_use": 15,
    "n_no_tool": 1,
    "n_parse_error": 0,
    "n_total": 16,
    "metadata": {
      "difficulty": "hard",
      "expected_tool_use": true,
      "category": "hard"
    }
  },
  {
    "id": "fact_050",
    "question": "What is the total length of the Great Wall of China in kilometers according to the most recent survey?",
    "ground_truth": "approximately 21,196 kilometers (including all branches and sections)",
    "tool_use_rate": 0.9375,
    "n_tool_use": 15,
    "n_no_tool": 1,
    "n_parse_error": 0,
    "n_total": 16,
    "metadata": {
      "difficulty": "hard",
      "expected_tool_use": true,
      "category": "hard"
    }
  },
  {
    "id": "fact_055",
    "question": "What is the current world record for the men's 100m sprint?",
    "ground_truth": "9.58 seconds by Usain Bolt (2009)",
    "tool_use_rate": 0.9375,
    "n_tool_use": 15,
    "n_no_tool": 1,
    "n_parse_error": 0,
    "n_total": 16,
    "metadata": {
      "difficulty": "medium",
      "expected_tool_use": true,
      "category": "borderline"
    }
  },
  {
    "id": "fact_078",
    "question": "Who won the 2025 Australian Open men's singles title?",
    "ground_truth": "Jannik Sinner",
    "tool_use_rate": 0.9375,
    "n_tool_use": 15,
    "n_no_tool": 1,
    "n_parse_error": 0,
    "n_total": 16,
    "metadata": {
      "difficulty": "hard",
      "expected_tool_use": true,
      "category": "temporal"
    }
  },
  {
    "id": "fact_081",
    "question": "What was the latest version of Python released in 2025?",
    "ground_truth": "Python 3.13.x (check for latest patch version)",
    "tool_use_rate": 0.9375,
    "n_tool_use": 15,
    "n_no_tool": 1,
    "n_parse_error": 0,
    "n_total": 16,
    "metadata": {
      "difficulty": "hard",
      "expected_tool_use": true,
      "category": "temporal"
    }
  },
  {
    "id": "fact_094",
    "question": "Who won the 2024 Copa America?",
    "ground_truth": "Argentina",
    "tool_use_rate": 0.9375,
    "n_tool_use": 15,
    "n_no_tool": 1,
    "n_parse_error": 0,
    "n_total": 16,
    "metadata": {
      "difficulty": "hard",
      "expected_tool_use": true,
      "category": "temporal"
    }
  },
  {
    "id": "fact_100",
    "question": "Who won the 2024 Nobel Prize in Literature?",
    "ground_truth": "Han Kang",
    "tool_use_rate": 0.9375,
    "n_tool_use": 15,
    "n_no_tool": 1,
    "n_parse_error": 0,
    "n_total": 16,
    "metadata": {
      "difficulty": "hard",
      "expected_tool_use": true,
      "category": "temporal"
    }
  },
  {
    "id": "fact_013",
    "question": "What is the longest river in the world?",
    "ground_truth": "The Nile (approximately 6,650 km)",
    "tool_use_rate": 1.0,
    "n_tool_use": 16,
    "n_no_tool": 0,
    "n_parse_error": 0,
    "n_total": 16,
    "metadata": {
      "difficulty": "easy",
      "expected_tool_use": false,
      "category": "easy"
    }
  },
  {
    "id": "fact_026",
    "question": "How many registered voters were there in Bhutan's 2023 National Assembly election?",
    "ground_truth": "approximately 484,000 registered voters",
    "tool_use_rate": 1.0,
    "n_tool_use": 16,
    "n_no_tool": 0,
    "n_parse_error": 0,
    "n_total": 16,
    "metadata": {
      "difficulty": "hard",
      "expected_tool_use": true,
      "category": "hard"
    }
  },
  {
    "id": "fact_027",
    "question": "What is the exact elevation in meters of the highest point in Luxembourg?",
    "ground_truth": "Kneiff at 560 meters",
    "tool_use_rate": 1.0,
    "n_tool_use": 16,
    "n_no_tool": 0,
    "n_parse_error": 0,
    "n_total": 16,
    "metadata": {
      "difficulty": "hard",
      "expected_tool_use": true,
      "category": "hard"
    }
  },
  {
    "id": "fact_028",
    "question": "How many islands make up the Maldives?",
    "ground_truth": "approximately 1,192 coral islands",
    "tool_use_rate": 1.0,
    "n_tool_use": 16,
    "n_no_tool": 0,
    "n_parse_error": 0,
    "n_total": 16,
    "metadata": {
      "difficulty": "hard",
      "expected_tool_use": true,
      "category": "hard"
    }
  },
  {
    "id": "fact_029",
    "question": "What is the total length of the Trans-Siberian Railway in kilometers?",
    "ground_truth": "approximately 9,289 kilometers",
    "tool_use_rate": 1.0,
    "n_tool_use": 16,
    "n_no_tool": 0,
    "n_parse_error": 0,
    "n_total": 16,
    "metadata": {
      "difficulty": "hard",
      "expected_tool_use": true,
      "category": "hard"
    }
  },
  {
    "id": "fact_030",
    "question": "How many known species of ants exist worldwide?",
    "ground_truth": "over 22,000 described species",
    "tool_use_rate": 1.0,
    "n_tool_use": 16,
    "n_no_tool": 0,
    "n_parse_error": 0,
    "n_total": 16,
    "metadata": {
      "difficulty": "hard",
      "expected_tool_use": true,
      "category": "hard"
    }
  },
  {
    "id": "fact_031",
    "question": "What is the exact year the University of Bologna was founded?",
    "ground_truth": "1088",
    "tool_use_rate": 1.0,
    "n_tool_use": 16,
    "n_no_tool": 0,
    "n_parse_error": 0,
    "n_total": 16,
    "metadata": {
      "difficulty": "hard",
      "expected_tool_use": true,
      "category": "hard"
    }
  },
  {
    "id": "fact_032",
    "question": "How many volumes are in the Library of Congress as of 2024?",
    "ground_truth": "approximately 17 million volumes",
    "tool_use_rate": 1.0,
    "n_tool_use": 16,
    "n_no_tool": 0,
    "n_parse_error": 0,
    "n_total": 16,
    "metadata": {
      "difficulty": "hard",
      "expected_tool_use": true,
      "category": "hard"
    }
  },
  {
    "id": "fact_033",
    "question": "What is the total area of Lake Baikal in square kilometers?",
    "ground_truth": "approximately 31,722 square kilometers",
    "tool_use_rate": 1.0,
    "n_tool_use": 16,
    "n_no_tool": 0,
    "n_parse_error": 0,
    "n_total": 16,
    "metadata": {
      "difficulty": "hard",
      "expected_tool_use": true,
      "category": "hard"
    }
  },
  {
    "id": "fact_035",
    "question": "What is the wingspan in meters of a Boeing 747-8?",
    "ground_truth": "68.4 meters",
    "tool_use_rate": 1.0,
    "n_tool_use": 16,
    "n_no_tool": 0,
    "n_parse_error": 0,
    "n_total": 16,
    "metadata": {
      "difficulty": "hard",
      "expected_tool_use": true,
      "category": "hard"
    }
  },
  {
    "id": "fact_036",
    "question": "How many paintings did Johannes Vermeer produce in his lifetime?",
    "ground_truth": "approximately 34-36 attributed works",
    "tool_use_rate": 1.0,
    "n_tool_use": 16,
    "n_no_tool": 0,
    "n_parse_error": 0,
    "n_total": 16,
    "metadata": {
      "difficulty": "hard",
      "expected_tool_use": true,
      "category": "hard"
    }
  },
  {
    "id": "fact_037",
    "question": "What is the deepest point of the Mariana Trench in meters?",
    "ground_truth": "approximately 10,935 meters (Challenger Deep)",
    "tool_use_rate": 1.0,
    "n_tool_use": 16,
    "n_no_tool": 0,
    "n_parse_error": 0,
    "n_total": 16,
    "metadata": {
      "difficulty": "hard",
      "expected_tool_use": true,
      "category": "hard"
    }
  },
  {
    "id": "fact_038",
    "question": "How many steps are there in the Eiffel Tower from ground to top?",
    "ground_truth": "1,665 steps to the top",
    "tool_use_rate": 1.0,
    "n_tool_use": 16,
    "n_no_tool": 0,
    "n_parse_error": 0,
    "n_total": 16,
    "metadata": {
      "difficulty": "hard",
      "expected_tool_use": true,
      "category": "hard"
    }
  },
  {
    "id": "fact_039",
    "question": "What is the total number of subway stations in the Tokyo Metro system?",
    "ground_truth": "180 stations (Tokyo Metro only, not including Toei)",
    "tool_use_rate": 1.0,
    "n_tool_use": 16,
    "n_no_tool": 0,
    "n_parse_error": 0,
    "n_total": 16,
    "metadata": {
      "difficulty": "hard",
      "expected_tool_use": true,
      "category": "hard"
    }
  },
  {
    "id": "fact_040",
    "question": "What is the exact melting point of titanium in degrees Celsius?",
    "ground_truth": "1,668 degrees Celsius",
    "tool_use_rate": 1.0,
    "n_tool_use": 16,
    "n_no_tool": 0,
    "n_parse_error": 0,
    "n_total": 16,
    "metadata": {
      "difficulty": "hard",
      "expected_tool_use": true,
      "category": "hard"
    }
  },
  {
    "id": "fact_041",
    "question": "How many bones does a domestic cat have?",
    "ground_truth": "approximately 230 bones",
    "tool_use_rate": 1.0,
    "n_tool_use": 16,
    "n_no_tool": 0,
    "n_parse_error": 0,
    "n_total": 16,
    "metadata": {
      "difficulty": "hard",
      "expected_tool_use": true,
      "category": "hard"
    }
  },
  {
    "id": "fact_042",
    "question": "What is the total number of municipalities in Switzerland?",
    "ground_truth": "approximately 2,136 as of 2024",
    "tool_use_rate": 1.0,
    "n_tool_use": 16,
    "n_no_tool": 0,
    "n_parse_error": 0,
    "n_total": 16,
    "metadata": {
      "difficulty": "hard",
      "expected_tool_use": true,
      "category": "hard"
    }
  },
  {
    "id": "fact_044",
    "question": "What is the exact orbital period of Saturn around the Sun in Earth years?",
    "ground_truth": "approximately 29.46 Earth years",
    "tool_use_rate": 1.0,
    "n_tool_use": 16,
    "n_no_tool": 0,
    "n_parse_error": 0,
    "n_total": 16,
    "metadata": {
      "difficulty": "hard",
      "expected_tool_use": true,
      "category": "hard"
    }
  },
  {
    "id": "fact_045",
    "question": "How many locks are in the Panama Canal?",
    "ground_truth": "12 locks (in 3 sets of 2 lanes each, with the newer Neopanamax locks)",
    "tool_use_rate": 1.0,
    "n_tool_use": 16,
    "n_no_tool": 0,
    "n_parse_error": 0,
    "n_total": 16,
    "metadata": {
      "difficulty": "hard",
      "expected_tool_use": true,
      "category": "hard"
    }
  },
  {
    "id": "fact_051",
    "question": "What is the current population of Iceland?",
    "ground_truth": "approximately 383,000",
    "tool_use_rate": 1.0,
    "n_tool_use": 16,
    "n_no_tool": 0,
    "n_parse_error": 0,
    "n_total": 16,
    "metadata": {
      "difficulty": "medium",
      "expected_tool_use": true,
      "category": "borderline"
    }
  },
  {
    "id": "fact_052",
    "question": "What is the GDP of New Zealand?",
    "ground_truth": "approximately $250 billion USD",
    "tool_use_rate": 1.0,
    "n_tool_use": 16,
    "n_no_tool": 0,
    "n_parse_error": 0,
    "n_total": 16,
    "metadata": {
      "difficulty": "medium",
      "expected_tool_use": true,
      "category": "borderline"
    }
  },
  {
    "id": "fact_053",
    "question": "Who is the current Secretary-General of the United Nations?",
    "ground_truth": "Antonio Guterres",
    "tool_use_rate": 1.0,
    "n_tool_use": 16,
    "n_no_tool": 0,
    "n_parse_error": 0,
    "n_total": 16,
    "metadata": {
      "difficulty": "medium",
      "expected_tool_use": true,
      "category": "borderline"
    }
  },
  {
    "id": "fact_054",
    "question": "What is the population of Liechtenstein?",
    "ground_truth": "approximately 39,000",
    "tool_use_rate": 1.0,
    "n_tool_use": 16,
    "n_no_tool": 0,
    "n_parse_error": 0,
    "n_total": 16,
    "metadata": {
      "difficulty": "medium",
      "expected_tool_use": true,
      "category": "borderline"
    }
  },
  {
    "id": "fact_056",
    "question": "How many countries are currently in the European Union?",
    "ground_truth": "27 member states",
    "tool_use_rate": 1.0,
    "n_tool_use": 16,
    "n_no_tool": 0,
    "n_parse_error": 0,
    "n_total": 16,
    "metadata": {
      "difficulty": "medium",
      "expected_tool_use": true,
      "category": "borderline"
    }
  },
  {
    "id": "fact_057",
    "question": "What is the current inflation rate in the United States?",
    "ground_truth": "approximately 2.5-3% (varies by month)",
    "tool_use_rate": 1.0,
    "n_tool_use": 16,
    "n_no_tool": 0,
    "n_parse_error": 0,
    "n_total": 16,
    "metadata": {
      "difficulty": "medium",
      "expected_tool_use": true,
      "category": "borderline"
    }
  },
  {
    "id": "fact_058",
    "question": "Who is the current Prime Minister of Canada?",
    "ground_truth": "Mark Carney (as of 2025)",
    "tool_use_rate": 1.0,
    "n_tool_use": 16,
    "n_no_tool": 0,
    "n_parse_error": 0,
    "n_total": 16,
    "metadata": {
      "difficulty": "medium",
      "expected_tool_use": true,
      "category": "borderline"
    }
  },
  {
    "id": "fact_059",
    "question": "What is the population of Tokyo metropolitan area?",
    "ground_truth": "approximately 37 million in the greater metropolitan area",
    "tool_use_rate": 1.0,
    "n_tool_use": 16,
    "n_no_tool": 0,
    "n_parse_error": 0,
    "n_total": 16,
    "metadata": {
      "difficulty": "medium",
      "expected_tool_use": true,
      "category": "borderline"
    }
  },
  {
    "id": "fact_060",
    "question": "How many billionaires are there in the world according to Forbes?",
    "ground_truth": "approximately 2,780 (2024 list)",
    "tool_use_rate": 1.0,
    "n_tool_use": 16,
    "n_no_tool": 0,
    "n_parse_error": 0,
    "n_total": 16,
    "metadata": {
      "difficulty": "medium",
      "expected_tool_use": true,
      "category": "borderline"
    }
  },
  {
    "id": "fact_061",
    "question": "What is the current life expectancy in Japan?",
    "ground_truth": "approximately 84 years",
    "tool_use_rate": 1.0,
    "n_tool_use": 16,
    "n_no_tool": 0,
    "n_parse_error": 0,
    "n_total": 16,
    "metadata": {
      "difficulty": "medium",
      "expected_tool_use": true,
      "category": "borderline"
    }
  },
  {
    "id": "fact_062",
    "question": "What is the current exchange rate of 1 US dollar to Japanese yen?",
    "ground_truth": "approximately 150-155 yen per dollar (fluctuates)",
    "tool_use_rate": 1.0,
    "n_tool_use": 16,
    "n_no_tool": 0,
    "n_parse_error": 0,
    "n_total": 16,
    "metadata": {
      "difficulty": "medium",
      "expected_tool_use": true,
      "category": "borderline"
    }
  },
  {
    "id": "fact_063",
    "question": "How many nuclear power plants are operational in France?",
    "ground_truth": "56 operational reactors at 18 sites",
    "tool_use_rate": 1.0,
    "n_tool_use": 16,
    "n_no_tool": 0,
    "n_parse_error": 0,
    "n_total": 16,
    "metadata": {
      "difficulty": "medium",
      "expected_tool_use": true,
      "category": "borderline"
    }
  },
  {
    "id": "fact_064",
    "question": "What percentage of the world's population lives in Asia?",
    "ground_truth": "approximately 59%",
    "tool_use_rate": 1.0,
    "n_tool_use": 16,
    "n_no_tool": 0,
    "n_parse_error": 0,
    "n_total": 16,
    "metadata": {
      "difficulty": "medium",
      "expected_tool_use": true,
      "category": "borderline"
    }
  },
  {
    "id": "fact_065",
    "question": "What is the current unemployment rate in Germany?",
    "ground_truth": "approximately 5.7-6%",
    "tool_use_rate": 1.0,
    "n_tool_use": 16,
    "n_no_tool": 0,
    "n_parse_error": 0,
    "n_total": 16,
    "metadata": {
      "difficulty": "medium",
      "expected_tool_use": true,
      "category": "borderline"
    }
  },
  {
    "id": "fact_066",
    "question": "How many active volcanoes are there in Indonesia?",
    "ground_truth": "approximately 130 active volcanoes",
    "tool_use_rate": 1.0,
    "n_tool_use": 16,
    "n_no_tool": 0,
    "n_parse_error": 0,
    "n_total": 16,
    "metadata": {
      "difficulty": "medium",
      "expected_tool_use": true,
      "category": "borderline"
    }
  },
  {
    "id": "fact_067",
    "question": "What is the total length of the Amazon River?",
    "ground_truth": "approximately 6,400 kilometers",
    "tool_use_rate": 1.0,
    "n_tool_use": 16,
    "n_no_tool": 0,
    "n_parse_error": 0,
    "n_total": 16,
    "metadata": {
      "difficulty": "medium",
      "expected_tool_use": true,
      "category": "borderline"
    }
  },
  {
    "id": "fact_068",
    "question": "Who is the richest person in the world right now?",
    "ground_truth": "Elon Musk (as of late 2024/early 2025)",
    "tool_use_rate": 1.0,
    "n_tool_use": 16,
    "n_no_tool": 0,
    "n_parse_error": 0,
    "n_total": 16,
    "metadata": {
      "difficulty": "medium",
      "expected_tool_use": true,
      "category": "borderline"
    }
  },
  {
    "id": "fact_069",
    "question": "What is the current global average temperature anomaly compared to pre-industrial levels?",
    "ground_truth": "approximately 1.2-1.5 degrees Celsius above pre-industrial levels",
    "tool_use_rate": 1.0,
    "n_tool_use": 16,
    "n_no_tool": 0,
    "n_parse_error": 0,
    "n_total": 16,
    "metadata": {
      "difficulty": "medium",
      "expected_tool_use": true,
      "category": "borderline"
    }
  },
  {
    "id": "fact_070",
    "question": "How many satellites are currently orbiting Earth?",
    "ground_truth": "over 10,000 active satellites (as of 2024)",
    "tool_use_rate": 1.0,
    "n_tool_use": 16,
    "n_no_tool": 0,
    "n_parse_error": 0,
    "n_total": 16,
    "metadata": {
      "difficulty": "medium",
      "expected_tool_use": true,
      "category": "borderline"
    }
  },
  {
    "id": "fact_071",
    "question": "What is the current population of Nigeria?",
    "ground_truth": "approximately 230 million",
    "tool_use_rate": 1.0,
    "n_tool_use": 16,
    "n_no_tool": 0,
    "n_parse_error": 0,
    "n_total": 16,
    "metadata": {
      "difficulty": "medium",
      "expected_tool_use": true,
      "category": "borderline"
    }
  },
  {
    "id": "fact_072",
    "question": "How many electric vehicles were sold worldwide in 2024?",
    "ground_truth": "approximately 17 million",
    "tool_use_rate": 1.0,
    "n_tool_use": 16,
    "n_no_tool": 0,
    "n_parse_error": 0,
    "n_total": 16,
    "metadata": {
      "difficulty": "medium",
      "expected_tool_use": true,
      "category": "borderline"
    }
  },
  {
    "id": "fact_073",
    "question": "What is the total number of languages spoken in Papua New Guinea?",
    "ground_truth": "over 840 languages",
    "tool_use_rate": 1.0,
    "n_tool_use": 16,
    "n_no_tool": 0,
    "n_parse_error": 0,
    "n_total": 16,
    "metadata": {
      "difficulty": "medium",
      "expected_tool_use": true,
      "category": "borderline"
    }
  },
  {
    "id": "fact_074",
    "question": "What percentage of Earth's surface is covered by oceans?",
    "ground_truth": "approximately 71%",
    "tool_use_rate": 1.0,
    "n_tool_use": 16,
    "n_no_tool": 0,
    "n_parse_error": 0,
    "n_total": 16,
    "metadata": {
      "difficulty": "medium",
      "expected_tool_use": true,
      "category": "borderline"
    }
  },
  {
    "id": "fact_075",
    "question": "How many episodes of The Simpsons have been produced?",
    "ground_truth": "over 770 episodes",
    "tool_use_rate": 1.0,
    "n_tool_use": 16,
    "n_no_tool": 0,
    "n_parse_error": 0,
    "n_total": 16,
    "metadata": {
      "difficulty": "medium",
      "expected_tool_use": true,
      "category": "borderline"
    }
  },
  {
    "id": "fact_079",
    "question": "What is the current price of Bitcoin in US dollars?",
    "ground_truth": "fluctuates; approximately $90,000-$100,000 range in early 2025",
    "tool_use_rate": 1.0,
    "n_tool_use": 16,
    "n_no_tool": 0,
    "n_parse_error": 0,
    "n_total": 16,
    "metadata": {
      "difficulty": "hard",
      "expected_tool_use": true,
      "category": "temporal"
    }
  },
  {
    "id": "fact_082",
    "question": "Which country hosted the 2025 FIFA Club World Cup?",
    "ground_truth": "United States (summer 2025)",
    "tool_use_rate": 1.0,
    "n_tool_use": 16,
    "n_no_tool": 0,
    "n_parse_error": 0,
    "n_total": 16,
    "metadata": {
      "difficulty": "hard",
      "expected_tool_use": true,
      "category": "temporal"
    }
  },
  {
    "id": "fact_085",
    "question": "What is the current federal funds rate set by the US Federal Reserve?",
    "ground_truth": "approximately 4.25-4.5% (as of early 2025)",
    "tool_use_rate": 1.0,
    "n_tool_use": 16,
    "n_no_tool": 0,
    "n_parse_error": 0,
    "n_total": 16,
    "metadata": {
      "difficulty": "hard",
      "expected_tool_use": true,
      "category": "temporal"
    }
  },
  {
    "id": "fact_086",
    "question": "Who won the 2024 Ballon d'Or award?",
    "ground_truth": "Rodri (Rodrigo Hernandez, Manchester City)",
    "tool_use_rate": 1.0,
    "n_tool_use": 16,
    "n_no_tool": 0,
    "n_parse_error": 0,
    "n_total": 16,
    "metadata": {
      "difficulty": "hard",
      "expected_tool_use": true,
      "category": "temporal"
    }
  },
  {
    "id": "fact_089",
    "question": "What new country joined BRICS in 2024?",
    "ground_truth": "Egypt, Ethiopia, Iran, Saudi Arabia, and UAE were invited; most joined in January 2024",
    "tool_use_rate": 1.0,
    "n_tool_use": 16,
    "n_no_tool": 0,
    "n_parse_error": 0,
    "n_total": 16,
    "metadata": {
      "difficulty": "hard",
      "expected_tool_use": true,
      "category": "temporal"
    }
  },
  {
    "id": "fact_091",
    "question": "Who is the current CEO of OpenAI?",
    "ground_truth": "Sam Altman",
    "tool_use_rate": 1.0,
    "n_tool_use": 16,
    "n_no_tool": 0,
    "n_parse_error": 0,
    "n_total": 16,
    "metadata": {
      "difficulty": "hard",
      "expected_tool_use": true,
      "category": "temporal"
    }
  },
  {
    "id": "fact_095",
    "question": "What was the date of the total solar eclipse visible across North America in 2024?",
    "ground_truth": "April 8, 2024",
    "tool_use_rate": 1.0,
    "n_tool_use": 16,
    "n_no_tool": 0,
    "n_parse_error": 0,
    "n_total": 16,
    "metadata": {
      "difficulty": "hard",
      "expected_tool_use": true,
      "category": "temporal"
    }
  },
  {
    "id": "fact_096",
    "question": "What AI model did Google DeepMind release in late 2024?",
    "ground_truth": "Gemini 2.0",
    "tool_use_rate": 1.0,
    "n_tool_use": 16,
    "n_no_tool": 0,
    "n_parse_error": 0,
    "n_total": 16,
    "metadata": {
      "difficulty": "hard",
      "expected_tool_use": true,
      "category": "temporal"
    }
  },
  {
    "id": "fact_097",
    "question": "Who became the new NATO Secretary General in 2024?",
    "ground_truth": "Mark Rutte (took office October 2024)",
    "tool_use_rate": 1.0,
    "n_tool_use": 16,
    "n_no_tool": 0,
    "n_parse_error": 0,
    "n_total": 16,
    "metadata": {
      "difficulty": "hard",
      "expected_tool_use": true,
      "category": "temporal"
    }
  },
  {
    "id": "fact_098",
    "question": "What was the world population estimate as of January 2025?",
    "ground_truth": "approximately 8.1 billion",
    "tool_use_rate": 1.0,
    "n_tool_use": 16,
    "n_no_tool": 0,
    "n_parse_error": 0,
    "n_total": 16,
    "metadata": {
      "difficulty": "hard",
      "expected_tool_use": true,
      "category": "temporal"
    }
  },
  {
    "id": "fact_099",
    "question": "Which team won the 2024 NBA Championship?",
    "ground_truth": "Boston Celtics",
    "tool_use_rate": 1.0,
    "n_tool_use": 16,
    "n_no_tool": 0,
    "n_parse_error": 0,
    "n_total": 16,
    "metadata": {
      "difficulty": "hard",
      "expected_tool_use": true,
      "category": "temporal"
    }
  }
]